
    -----------------------------------------------------------------------
          Psi4: An Open-Source Ab Initio Electronic Structure Package
                               Psi4 1.1 release

                         Git: Rev {HEAD} add49b9 


    R. M. Parrish, L. A. Burns, D. G. A. Smith, A. C. Simmonett,
    A. E. DePrince III, E. G. Hohenstein, U. Bozkaya, A. Yu. Sokolov,
    R. Di Remigio, R. M. Richard, J. F. Gonthier, A. M. James,
    H. R. McAlexander, A. Kumar, M. Saitow, X. Wang, B. P. Pritchard,
    P. Verma, H. F. Schaefer III, K. Patkowski, R. A. King, E. F. Valeev,
    F. A. Evangelista, J. M. Turney, T. D. Crawford, and C. D. Sherrill,
    J. Chem. Theory Comput. in press (2017).
    (doi: 10.1021/acs.jctc.7b00174)

    -----------------------------------------------------------------------


    Psi4 started on: Tuesday, 11 December 2018 04:45PM

    Process ID:  14606
    PSIDATADIR: /beegfs/DATA/mobley/limvt/local/miniconda3/envs/oepython3/share/psi4
    Memory:     500.0 MiB
    Threads:    1
    
  ==> Input File <==

--------------------------------------------------------------------------
molecule GBIN_angle0 {
  0 1
  C     -2.803     -9.783     0.976
  C     -3.929     -9.959     0.155
  C     -4.014     -9.285     -1.073
  C     -2.981     -8.433     -1.492
  C     -1.878     -8.275     -0.665
  C     -1.782     -8.947     0.571
  N     -0.731     -7.544     -0.760
  N     -0.606     -8.631     1.202
  C     -0.027     -7.802     0.376
  N     1.203     -7.293     0.738
  C     1.907     -7.523     1.827
  N     3.122     -7.040     1.928
  N     1.465     -8.218     2.852
  H     -2.696     -10.278     1.929
  H     -4.732     -10.611     0.464
  H     -4.882     -9.427     -1.699
  H     -3.037     -7.909     -2.434
  H     -0.399     -6.912     -1.475
  H     1.627     -6.737     0.023
  H     3.469     -6.511     1.153
  H     3.589     -7.263     2.783
  H     2.146     -8.281     3.582
}

set optking {
  frozen_dihedral = ("
    8 9 10 11
  ")
}
set basis 6-31G*
optimize('mp2')--------------------------------------------------------------------------
gradient() will perform analytic gradient computation.

*** tstart() called on c-7-42
*** at Tue Dec 11 16:45:49 2018

    SCF Algorithm Type (re)set to DF.

*** tstart() called on c-7-42
*** at Tue Dec 11 16:45:49 2018

   => Loading Basis Set <=

    Name: 6-31G*
    Role: ORBITAL
    Keyword: BASIS
    atoms 1-6, 9, 11     entry C          line   102 file /beegfs/DATA/mobley/limvt/local/miniconda3/envs/oepython3/share/psi4/basis/6-31gs.gbs 
    atoms 7-8, 10, 12-13 entry N          line   119 file /beegfs/DATA/mobley/limvt/local/miniconda3/envs/oepython3/share/psi4/basis/6-31gs.gbs 
    atoms 14-22          entry H          line    35 file /beegfs/DATA/mobley/limvt/local/miniconda3/envs/oepython3/share/psi4/basis/6-31gs.gbs 


         ---------------------------------------------------------
                                   SCF
            by Justin Turney, Rob Parrish, and Andy Simmonett
                              RHF Reference
                        1 Threads,    500 MiB Core
         ---------------------------------------------------------

  ==> Geometry <==

    Molecular point group: c1
    Full point group: C1

    Geometry (in Angstrom), charge = 0, multiplicity = 1:

       Center              X                  Y                   Z               Mass       
    ------------   -----------------  -----------------  -----------------  -----------------
           C         -2.068035914195    -1.462082028873     0.428164740229    12.000000000000
           C         -3.194035914195    -1.638082028873    -0.392835259771    12.000000000000
           C         -3.279035914195    -0.964082028873    -1.620835259771    12.000000000000
           C         -2.246035914195    -0.112082028873    -2.039835259771    12.000000000000
           C         -1.143035914195     0.045917971127    -1.212835259771    12.000000000000
           C         -1.047035914195    -0.626082028873     0.023164740229    12.000000000000
           N          0.003964085805     0.776917971127    -1.307835259771    14.003074004780
           N          0.128964085805    -0.310082028873     0.654164740229    14.003074004780
           C          0.707964085805     0.518917971127    -0.171835259771    12.000000000000
           N          1.937964085805     1.027917971127     0.190164740229    14.003074004780
           C          2.641964085805     0.797917971127     1.279164740229    12.000000000000
           N          3.856964085805     1.280917971127     1.380164740229    14.003074004780
           N          2.199964085805     0.102917971127     2.304164740229    14.003074004780
           H         -1.961035914195    -1.957082028873     1.381164740229     1.007825032070
           H         -3.997035914195    -2.290082028873    -0.083835259771     1.007825032070
           H         -4.147035914195    -1.106082028873    -2.246835259771     1.007825032070
           H         -2.302035914195     0.411917971127    -2.981835259771     1.007825032070
           H          0.335964085805     1.408917971127    -2.022835259771     1.007825032070
           H          2.361964085805     1.583917971127    -0.524835259771     1.007825032070
           H          4.203964085805     1.809917971127     0.605164740229     1.007825032070
           H          4.323964085805     1.057917971127     2.235164740229     1.007825032070
           H          2.880964085805     0.039917971127     3.034164740229     1.007825032070

  Running in c1 symmetry.

  Rotational constants: A =      0.09200  B =      0.01449  C =      0.01253 [cm^-1]
  Rotational constants: A =   2758.20320  B =    434.49246  C =    375.62828 [MHz]
  Nuclear repulsion =  747.113969784380629

  Charge       = 0
  Multiplicity = 1
  Electrons    = 92
  Nalpha       = 46
  Nbeta        = 46

  ==> Algorithm <==

  SCF Algorithm Type is DF.
  DIIS enabled.
  MOM disabled.
  Fractional occupation disabled.
  Guess Type is SAD.
  Energy threshold   = 1.00e-10
  Density threshold  = 1.00e-10
  Integral threshold = 0.00e+00

  ==> Primary Basis <==

  Basis Set: 6-31G*
    Blend: 6-31G*
    Number of shells: 96
    Number of basis function: 213
    Number of Cartesian functions: 213
    Spherical Harmonics?: false
    Max angular momentum: 2

   => Loading Basis Set <=

    Name: (6-31G* AUX)
    Role: JKFIT
    Keyword: DF_BASIS_SCF
    atoms 1-6, 9, 11     entry C          line   120 file /beegfs/DATA/mobley/limvt/local/miniconda3/envs/oepython3/share/psi4/basis/cc-pvdz-jkfit.gbs 
    atoms 7-8, 10, 12-13 entry N          line   170 file /beegfs/DATA/mobley/limvt/local/miniconda3/envs/oepython3/share/psi4/basis/cc-pvdz-jkfit.gbs 
    atoms 14-22          entry H          line    50 file /beegfs/DATA/mobley/limvt/local/miniconda3/envs/oepython3/share/psi4/basis/cc-pvdz-jkfit.gbs 

  ==> Pre-Iterations <==

   -------------------------------------------------------
    Irrep   Nso     Nmo     Nalpha   Nbeta   Ndocc  Nsocc
   -------------------------------------------------------
     A        213     213       0       0       0       0
   -------------------------------------------------------
    Total     213     213      46      46      46       0
   -------------------------------------------------------

  ==> Integral Setup <==

  ==> DFJK: Density-Fitted J/K Matrices <==

    J tasked:                  Yes
    K tasked:                  Yes
    wK tasked:                  No
    OpenMP threads:              1
    Integrals threads:           1
    Memory (MB):               375
    Algorithm:                Core
    Integral Cache:           NONE
    Schwarz Cutoff:          1E-12
    Fitting Condition:       1E-12

   => Auxiliary Basis Set <=

  Basis Set: (6-31G* AUX)
    Blend: CC-PVDZ-JKFIT
    Number of shells: 393
    Number of basis function: 1278
    Number of Cartesian functions: 1278
    Spherical Harmonics?: false
    Max angular momentum: 3

  Minimum eigenvalue in the overlap matrix is 3.7091891241E-04.
  Using Symmetric Orthogonalization.

  SCF Guess: Superposition of Atomic Densities via on-the-fly atomic UHF.

  ==> Iterations <==

                           Total Energy        Delta E     RMS |[F,P]|

   @DF-RHF iter   0:  -587.88053663213714   -5.87881e+02   3.37990e-02 
   @DF-RHF iter   1:  -580.02393007233843    7.85661e+00   3.28917e-03 
   @DF-RHF iter   2:  -580.28682555777368   -2.62895e-01   1.99051e-03 DIIS
   @DF-RHF iter   3:  -580.36838817473949   -8.15626e-02   5.70811e-04 DIIS
   @DF-RHF iter   4:  -580.38176412807354   -1.33760e-02   1.73680e-04 DIIS
   @DF-RHF iter   5:  -580.38319156745570   -1.42744e-03   6.85917e-05 DIIS
   @DF-RHF iter   6:  -580.38344485572441   -2.53288e-04   2.48255e-05 DIIS
   @DF-RHF iter   7:  -580.38347630819214   -3.14525e-05   8.51684e-06 DIIS
   @DF-RHF iter   8:  -580.38347944292184   -3.13473e-06   2.87680e-06 DIIS
   @DF-RHF iter   9:  -580.38348007438731   -6.31465e-07   1.15690e-06 DIIS
   @DF-RHF iter  10:  -580.38348021599404   -1.41607e-07   4.93462e-07 DIIS
   @DF-RHF iter  11:  -580.38348024173717   -2.57431e-08   1.96281e-07 DIIS
   @DF-RHF iter  12:  -580.38348024650361   -4.76643e-09   8.62587e-08 DIIS
   @DF-RHF iter  13:  -580.38348024733443   -8.30823e-10   3.39138e-08 DIIS
   @DF-RHF iter  14:  -580.38348024744414   -1.09708e-10   1.34291e-08 DIIS
   @DF-RHF iter  15:  -580.38348024745937   -1.52340e-11   5.24574e-09 DIIS
   @DF-RHF iter  16:  -580.38348024745642    2.95586e-12   1.98662e-09 DIIS
   @DF-RHF iter  17:  -580.38348024745858   -2.16005e-12   7.48789e-10 DIIS
   @DF-RHF iter  18:  -580.38348024745801    5.68434e-13   3.98731e-10 DIIS
   @DF-RHF iter  19:  -580.38348024746256   -4.54747e-12   1.53217e-10 DIIS
   @DF-RHF iter  20:  -580.38348024745778    4.77485e-12   6.43568e-11 DIIS

  ==> Post-Iterations <==

    Orbital Energies (a.u.)
    -----------------------

    Doubly Occupied:                                                      

       1A    -15.630410     2A    -15.623817     3A    -15.586278  
       4A    -15.520246     5A    -15.474295     6A    -11.352106  
       7A    -11.340193     8A    -11.263056     9A    -11.236366  
      10A    -11.229935    11A    -11.222129    12A    -11.218014  
      13A    -11.213234    14A     -1.378563    15A     -1.329559  
      16A     -1.230551    17A     -1.178578    18A     -1.118348  
      19A     -1.101560    20A     -0.998193    21A     -0.989637  
      22A     -0.897076    23A     -0.842172    24A     -0.823271  
      25A     -0.789139    26A     -0.758370    27A     -0.745434  
      28A     -0.720170    29A     -0.684675    30A     -0.656520  
      31A     -0.645507    32A     -0.608966    33A     -0.599823  
      34A     -0.590604    35A     -0.584839    36A     -0.579214  
      37A     -0.508541    38A     -0.498127    39A     -0.482646  
      40A     -0.449671    41A     -0.429788    42A     -0.405194  
      43A     -0.361338    44A     -0.324221    45A     -0.299122  
      46A     -0.273615  

    Virtual:                                                              

      47A      0.142766    48A      0.170743    49A      0.178042  
      50A      0.207722    51A      0.227536    52A      0.242028  
      53A      0.257486    54A      0.282181    55A      0.301947  
      56A      0.308072    57A      0.327629    58A      0.343065  
      59A      0.346706    60A      0.382157    61A      0.400336  
      62A      0.447444    63A      0.457655    64A      0.473706  
      65A      0.490029    66A      0.508913    67A      0.522430  
      68A      0.555775    69A      0.578802    70A      0.624101  
      71A      0.643635    72A      0.673713    73A      0.715260  
      74A      0.723019    75A      0.746780    76A      0.748842  
      77A      0.770246    78A      0.773250    79A      0.787778  
      80A      0.801004    81A      0.822869    82A      0.832226  
      83A      0.840521    84A      0.841837    85A      0.854095  
      86A      0.858004    87A      0.874827    88A      0.878905  
      89A      0.888768    90A      0.911384    91A      0.925799  
      92A      0.938862    93A      0.969761    94A      0.976108  
      95A      0.988843    96A      1.018839    97A      1.043365  
      98A      1.062331    99A      1.084881   100A      1.087848  
     101A      1.106610   102A      1.118796   103A      1.122414  
     104A      1.134460   105A      1.147094   106A      1.155349  
     107A      1.174215   108A      1.182168   109A      1.191197  
     110A      1.195428   111A      1.204477   112A      1.219710  
     113A      1.229836   114A      1.263648   115A      1.274346  
     116A      1.282991   117A      1.310616   118A      1.358786  
     119A      1.376349   120A      1.416746   121A      1.435716  
     122A      1.453404   123A      1.475729   124A      1.522141  
     125A      1.549063   126A      1.570328   127A      1.592122  
     128A      1.598116   129A      1.617992   130A      1.629957  
     131A      1.670186   132A      1.688447   133A      1.708556  
     134A      1.724167   135A      1.734371   136A      1.746529  
     137A      1.763441   138A      1.782389   139A      1.793471  
     140A      1.800580   141A      1.816676   142A      1.856606  
     143A      1.936544   144A      1.940956   145A      2.037809  
     146A      2.059659   147A      2.088965   148A      2.102374  
     149A      2.142942   150A      2.166979   151A      2.186297  
     152A      2.224377   153A      2.236833   154A      2.245761  
     155A      2.261264   156A      2.295911   157A      2.318853  
     158A      2.338894   159A      2.389116   160A      2.391380  
     161A      2.411718   162A      2.420901   163A      2.451667  
     164A      2.476759   165A      2.514109   166A      2.537996  
     167A      2.557946   168A      2.594201   169A      2.604731  
     170A      2.615516   171A      2.624096   172A      2.650195  
     173A      2.734535   174A      2.754761   175A      2.769740  
     176A      2.793501   177A      2.812380   178A      2.834592  
     179A      2.855651   180A      2.900967   181A      2.973638  
     182A      2.979811   183A      2.981217   184A      3.007507  
     185A      3.030084   186A      3.050015   187A      3.051232  
     188A      3.068074   189A      3.116083   190A      3.136375  
     191A      3.153946   192A      3.218642   193A      3.239483  
     194A      3.282543   195A      3.363989   196A      3.441170  
     197A      3.595021   198A      3.641525   199A      3.743283  
     200A      3.889804   201A      4.268446   202A      4.374330  
     203A      4.521860   204A      4.532786   205A      4.534052  
     206A      4.574635   207A      4.715629   208A      4.722149  
     209A      4.823460   210A      4.846483   211A      4.880947  
     212A      4.972035   213A      5.223003  

    Final Occupation by Irrep:
              A 
    DOCC [    46 ]

  Energy converged.

  @DF-RHF Final Energy:  -580.38348024745778

   => Energetics <=

    Nuclear Repulsion Energy =            747.1139697843806289
    One-Electron Energy =               -2271.4086826739985554
    Two-Electron Energy =                 943.9112326421602575
    DFT Exchange-Correlation Energy =       0.0000000000000000
    Empirical Dispersion Energy =           0.0000000000000000
    PCM Polarization Energy =               0.0000000000000000
    EFP Energy =                            0.0000000000000000
    Total Energy =                       -580.3834802474577828



Properties will be evaluated at   0.000000,   0.000000,   0.000000 Bohr

Properties computed using the SCF density matrix

  Nuclear Dipole Moment: (a.u.)
     X:     1.5698      Y:     0.8909      Z:    -0.5761

  Electronic Dipole Moment: (a.u.)
     X:     0.1289      Y:     0.8576      Z:    -1.2136

  Dipole Moment: (a.u.)
     X:     1.6986      Y:     1.7485      Z:    -1.7897     Total:     3.0242

  Dipole Moment: (Debye)
     X:     4.3175      Y:     4.4444      Z:    -4.5488     Total:     7.6867


*** tstop() called on c-7-42 at Tue Dec 11 16:46:53 2018
Module time:
	user time   =      59.26 seconds =       0.99 minutes
	system time =       0.77 seconds =       0.01 minutes
	total time  =         64 seconds =       1.07 minutes
Total time:
	user time   =      59.26 seconds =       0.99 minutes
	system time =       0.77 seconds =       0.01 minutes
	total time  =         64 seconds =       1.07 minutes

  //>>>>>>>>>>>>>>>>>>>>>>>>>>>>>>>>>>>//
  //               DFMP2               //
  //<<<<<<<<<<<<<<<<<<<<<<<<<<<<<<<<<<<//

   => Loading Basis Set <=

    Name: (6-31G* AUX)
    Role: RIFIT
    Keyword: DF_BASIS_MP2
    atoms 1-6, 9, 11     entry C          line   158 file /beegfs/DATA/mobley/limvt/local/miniconda3/envs/oepython3/share/psi4/basis/cc-pvdz-ri.gbs 
    atoms 7-8, 10, 12-13 entry N          line   196 file /beegfs/DATA/mobley/limvt/local/miniconda3/envs/oepython3/share/psi4/basis/cc-pvdz-ri.gbs 
    atoms 14-22          entry H          line    18 file /beegfs/DATA/mobley/limvt/local/miniconda3/envs/oepython3/share/psi4/basis/cc-pvdz-ri.gbs 

	 --------------------------------------------------------
	                          DF-MP2                         
	      2nd-Order Density-Fitted Moller-Plesset Theory     
	              RMP2 Wavefunction,   1 Threads             
	                                                         
	        Rob Parrish, Justin Turney, Andy Simmonett,      
	           Ed Hohenstein, and C. David Sherrill          
	 --------------------------------------------------------

   => Auxiliary Basis Set <=

  Basis Set: (6-31G* AUX)
    Blend: CC-PVDZ-RI
    Number of shells: 288
    Number of basis function: 854
    Number of Cartesian functions: 993
    Spherical Harmonics?: true
    Max angular momentum: 3

	 --------------------------------------------------------
	                 NBF =   213, NAUX =   854
	 --------------------------------------------------------
	   CLASS    FOCC     OCC    AOCC    AVIR     VIR    FVIR
	   PAIRS       0      46      46     167     167       0
	 --------------------------------------------------------


         ------------------------------------------------------------
                                     CPHF                           
                                  Rob Parrish                       
         ------------------------------------------------------------

  ==> Geometry <==

    Molecular point group: c1
    Full point group: C1

    Geometry (in Angstrom), charge = 0, multiplicity = 1:

       Center              X                  Y                   Z               Mass       
    ------------   -----------------  -----------------  -----------------  -----------------
           C         -2.068035914195    -1.462082028873     0.428164740229    12.000000000000
           C         -3.194035914195    -1.638082028873    -0.392835259771    12.000000000000
           C         -3.279035914195    -0.964082028873    -1.620835259771    12.000000000000
           C         -2.246035914195    -0.112082028873    -2.039835259771    12.000000000000
           C         -1.143035914195     0.045917971127    -1.212835259771    12.000000000000
           C         -1.047035914195    -0.626082028873     0.023164740229    12.000000000000
           N          0.003964085805     0.776917971127    -1.307835259771    14.003074004780
           N          0.128964085805    -0.310082028873     0.654164740229    14.003074004780
           C          0.707964085805     0.518917971127    -0.171835259771    12.000000000000
           N          1.937964085805     1.027917971127     0.190164740229    14.003074004780
           C          2.641964085805     0.797917971127     1.279164740229    12.000000000000
           N          3.856964085805     1.280917971127     1.380164740229    14.003074004780
           N          2.199964085805     0.102917971127     2.304164740229    14.003074004780
           H         -1.961035914195    -1.957082028873     1.381164740229     1.007825032070
           H         -3.997035914195    -2.290082028873    -0.083835259771     1.007825032070
           H         -4.147035914195    -1.106082028873    -2.246835259771     1.007825032070
           H         -2.302035914195     0.411917971127    -2.981835259771     1.007825032070
           H          0.335964085805     1.408917971127    -2.022835259771     1.007825032070
           H          2.361964085805     1.583917971127    -0.524835259771     1.007825032070
           H          4.203964085805     1.809917971127     0.605164740229     1.007825032070
           H          4.323964085805     1.057917971127     2.235164740229     1.007825032070
           H          2.880964085805     0.039917971127     3.034164740229     1.007825032070

  Nuclear repulsion =  747.113969784380629
  Reference energy  = -580.383480247457783

  ==> Basis Set <==

  Basis Set: 6-31G*
    Blend: 6-31G*
    Number of shells: 96
    Number of basis function: 213
    Number of Cartesian functions: 213
    Spherical Harmonics?: false
    Max angular momentum: 2

  ==> CGRSolver (by Rob Parrish) <==

   Number of roots    =         1
   Preconditioning    =    JACOBI
   Convergence cutoff =     1E-06
   Maximum iterations =       100

  ==> CPHFRHamiltonian (by Rob Parrish) <== 

  ==> DFJK: Density-Fitted J/K Matrices <==

    J tasked:                  Yes
    K tasked:                  Yes
    wK tasked:                  No
    OpenMP threads:              1
    Integrals threads:           1
    Memory (MB):               375
    Algorithm:                Core
    Integral Cache:           NONE
    Schwarz Cutoff:          1E-12
    Fitting Condition:       1E-12

   => Auxiliary Basis Set <=

  Basis Set: (6-31G* AUX)
    Blend: CC-PVDZ-JKFIT
    Number of shells: 393
    Number of basis function: 1278
    Number of Cartesian functions: 1278
    Spherical Harmonics?: false
    Max angular momentum: 3

  ==> CPHF Iterations <==

  => Iterations <=

             Iter  Converged  Remaining    Residual
  CGR           1          0          1   1.167E-01
  CGR           2          0          1   3.654E-02
  CGR           3          0          1   1.764E-02
  CGR           4          0          1   6.095E-03
  CGR           5          0          1   3.061E-03
  CGR           6          0          1   1.340E-03
  CGR           7          0          1   4.973E-04
  CGR           8          0          1   1.919E-04
  CGR           9          0          1   6.402E-05
  CGR          10          0          1   2.754E-05
  CGR          11          0          1   9.664E-06
  CGR          12          0          1   4.576E-06
  CGR          13          0          1   2.133E-06
  CGR          14          1          0   7.553E-07

    CGRSolver converged.

  ==> DFCorrGrad: Density-Fitted Correlated Gradients <==

    OpenMP threads:              1
    Integrals threads:           1
    Memory (MB):               375
    Schwarz Cutoff:          0E+00
    Fitting Condition:       1E-12

   => Auxiliary Basis Set <=

  Basis Set: (6-31G* AUX)
    Blend: CC-PVDZ-JKFIT
    Number of shells: 393
    Number of basis function: 1278
    Number of Cartesian functions: 1278
    Spherical Harmonics?: false
    Max angular momentum: 3

	-----------------------------------------------------------
	 ==================> DF-MP2 Energies <==================== 
	-----------------------------------------------------------
	 Reference Energy          =    -580.3834802474577828 [Eh]
	 Singles Energy            =      -0.0000000000000001 [Eh]
	 Same-Spin Energy          =      -0.5121333487287745 [Eh]
	 Opposite-Spin Energy      =      -1.3574716248755421 [Eh]
	 Correlation Energy        =      -1.8696049736043168 [Eh]
	 Total Energy              =    -582.2530852210620651 [Eh]
	-----------------------------------------------------------
	 ================> DF-SCS-MP2 Energies <================== 
	-----------------------------------------------------------
	 SCS Same-Spin Scale       =       0.3333333333333333 [-]
	 SCS Opposite-Spin Scale   =       1.2000000000000000 [-]
	 SCS Same-Spin Energy      =      -0.1707111162429248 [Eh]
	 SCS Opposite-Spin Energy  =      -1.6289659498506504 [Eh]
	 SCS Correlation Energy    =      -1.7996770660935755 [Eh]
	 SCS Total Energy          =    -582.1831573135513054 [Eh]
	-----------------------------------------------------------


  -Total Gradient:
     Atom            X                  Y                   Z
    ------   -----------------  -----------------  -----------------
       1        0.017662787360     0.010699916053    -0.000604248867
       2       -0.015989032344    -0.006516271068    -0.004839426121
       3       -0.012713384652    -0.005766682090    -0.002486947940
       4        0.007711790504     0.001955589889     0.004442710356
       5        0.022866547411     0.011347200752     0.002863893547
       6       -0.000125035707    -0.006798299921     0.011201515066
       7       -0.026754739923    -0.020081338185     0.007279916543
       8        0.012750460018     0.009931675453    -0.002781977083
       9       -0.008946036631     0.022691635780    -0.047944016880
      10        0.026880267648    -0.030227118179     0.079479541261
      11        0.029719276231     0.073498769976    -0.121604146810
      12       -0.044599180851    -0.036855681030     0.033723670135
      13        0.036644864055    -0.003007875572     0.036269266740
      14        0.002471378961     0.004341929865    -0.004774284726
      15        0.003059230060     0.003112204213    -0.002262911811
      16        0.003311509105    -0.000526370360     0.003951609071
      17        0.002536006629    -0.002149081300     0.006231580845
      18        0.008066382657     0.000502241489     0.006601670738
      19       -0.009616602612    -0.008118953206     0.006247880894
      20       -0.023112483499    -0.007594094350    -0.003672075624
      21       -0.015194410869    -0.008331070647     0.002771867418
      22       -0.016629593549    -0.002108327561    -0.010095086744


*** tstop() called on c-7-42 at Tue Dec 11 16:49:39 2018
Module time:
	user time   =     220.92 seconds =       3.68 minutes
	system time =       3.60 seconds =       0.06 minutes
	total time  =        230 seconds =       3.83 minutes
Total time:
	user time   =     220.92 seconds =       3.68 minutes
	system time =       3.60 seconds =       0.06 minutes
	total time  =        230 seconds =       3.83 minutes

			-----------------------------------------
			 OPTKING 2.0: for geometry optimizations 
			  - R.A. King,  Bethel University        
			-----------------------------------------

	Internal coordinates to be generated automatically.
	Detected frag 1 with atoms:  1 2 3 4 5 6 7 8 9 10 11 12 13 14 15 16 17 18 19 20
	 21 22
	---Fragment 1 Bond Connectivity---
	 1 : 2 6 14
	 2 : 1 3 15
	 3 : 2 4 16
	 4 : 3 5 17
	 5 : 4 6 7
	 6 : 1 5 8
	 7 : 5 9 18
	 8 : 6 9
	 9 : 7 8 10
	 10 : 9 11 19
	 11 : 10 12 13
	 12 : 11 20 21
	 13 : 11 22
	 14 : 1
	 15 : 2
	 16 : 3
	 17 : 4
	 18 : 7
	 19 : 10
	 20 : 12
	 21 : 12
	 22 : 13

	Assuming in current code that numbering for constraints corresponds to unified fragment.
	Frozen dihedral atom list: 
	     8     9    10    11
	---Fragment 1 Geometry and Gradient---
	 C          -3.9080215108       -2.7629346184        0.8091140988
	 C          -6.0358531364       -3.0955264178       -0.7423510563
	 C          -6.1964798577       -1.8218510042       -3.0629347475
	 C          -4.2443927625       -0.2118043390       -3.8547299972
	 C          -2.1600248379        0.0867723900       -2.2919264853
	 C          -1.9786111291       -1.1831235713        0.0437750150
	 N           0.0074910365        1.4681621931       -2.4714504679
	 N           0.2437068031       -0.5859701133        1.2361922048
	 C           1.3378582341        0.9806128509       -0.3247215809
	 N           3.6622213775        1.9424834525        0.3593592792
	 C           4.9925885751        1.5078464419        2.4172710379
	 N           7.2886058265        2.4205841641        2.6081333773
	 N           4.1573296244        0.1944867796        4.3542403241
	 H          -3.7058208146       -3.6983490542        2.6100231034
	 H          -7.5533032211       -4.3276278564       -0.1584256812
	 H          -7.8367621411       -2.0901921151       -4.2459033067
	 H          -4.3502174259        0.7784121546       -5.6348520143
	 H           0.6348801127        2.6624691091       -3.8226046529
	 H           4.4634652579        2.9931711824       -0.9917949058
	 H           7.9443407947        3.4202492884        1.1435956243
	 H           8.1711079306        1.9991752365        4.2238492209
	 H           5.4442331209        0.0754340332        5.7337404011
	             0.0176627874        0.0106999161       -0.0006042489
	            -0.0159890323       -0.0065162711       -0.0048394261
	            -0.0127133847       -0.0057666821       -0.0024869479
	             0.0077117905        0.0019555899        0.0044427104
	             0.0228665474        0.0113472008        0.0028638935
	            -0.0001250357       -0.0067982999        0.0112015151
	            -0.0267547399       -0.0200813382        0.0072799165
	             0.0127504600        0.0099316755       -0.0027819771
	            -0.0089460366        0.0226916358       -0.0479440169
	             0.0268802676       -0.0302271182        0.0794795413
	             0.0297192762        0.0734987700       -0.1216041468
	            -0.0445991809       -0.0368556810        0.0337236701
	             0.0366448641       -0.0030078756        0.0362692667
	             0.0024713790        0.0043419299       -0.0047742847
	             0.0030592301        0.0031122042       -0.0022629118
	             0.0033115091       -0.0005263704        0.0039516091
	             0.0025360066       -0.0021490813        0.0062315808
	             0.0080663827        0.0005022415        0.0066016707
	            -0.0096166026       -0.0081189532        0.0062478809
	            -0.0231124835       -0.0075940943       -0.0036720756
	            -0.0151944109       -0.0083310706        0.0027718674
	            -0.0166295935       -0.0021083276       -0.0100950867

	Previous optimization step data not found.  Starting new optimization.

	---Fragment 1 Intrafragment Coordinates---
	 - Coordinate -           - BOHR/RAD -       - ANG/DEG -
	 R(1,2)           =         2.654304	       1.404597
	 R(1,6)           =         2.608481	       1.380349
	 R(1,14)          =         2.039402	       1.079205
	 R(2,3)           =         2.652010	       1.403383
	 R(2,15)          =         2.040024	       1.079534
	 R(3,4)           =         2.651383	       1.403052
	 R(3,16)          =         2.040085	       1.079567
	 R(4,5)           =         2.622230	       1.387625
	 R(4,17)          =         2.039746	       1.079387
	 R(5,6)           =         2.664779	       1.410140
	 R(5,7)           =         2.576546	       1.363450
	 R(6,8)           =         2.591746	       1.371493
	 R(7,9)           =         2.572164	       1.361130
	 R(7,18)          =         1.909346	       1.010383
	 R(8,9)           =         2.467347	       1.305664
	 R(9,10)          =         2.606880	       1.379502
	 R(10,11)         =         2.488732	       1.316980
	 R(10,19)         =         1.889856	       1.000068
	 R(11,12)         =         2.478147	       1.311379
	 R(11,13)         =         2.484838	       1.314920
	 R(12,20)         =         1.890553	       1.000437
	 R(12,21)         =         1.888633	       0.999421
	 R(13,22)         =         1.890321	       1.000315
	 B(1,2,3)         =         2.094208	     119.989256
	 B(1,2,15)        =         2.099799	     120.309648
	 B(1,6,5)         =         2.089131	     119.698408
	 B(1,6,8)         =         2.263720	     129.701620
	 B(2,1,6)         =         2.091337	     119.824769
	 B(2,1,14)        =         2.139054	     122.558751
	 B(2,3,4)         =         2.104078	     120.554796
	 B(2,3,16)        =         2.086242	     119.532843
	 B(3,2,15)        =         2.089178	     119.701086
	 B(3,4,5)         =         2.067349	     118.450361
	 B(3,4,17)        =         2.114397	     121.146031
	 B(4,3,16)        =         2.092864	     119.912251
	 B(4,5,6)         =         2.120268	     121.482394
	 B(4,5,7)         =         2.329823	     133.489031
	 B(5,4,17)        =         2.101439	     120.403586
	 B(5,6,8)         =         1.930334	     110.599970
	 B(5,7,9)         =         1.849731	     105.981795
	 B(5,7,18)        =         2.293066	     131.383031
	 B(6,1,14)        =         2.052792	     117.616309
	 B(6,5,7)         =         1.833091	     105.028390
	 B(6,8,9)         =         1.808501	     103.619455
	 B(7,9,8)         =         2.003118	     114.770195
	 B(7,9,10)        =         2.227155	     127.606608
	 B(8,9,10)        =         2.052912	     117.623197
	 B(9,7,18)        =         2.140306	     122.630505
	 B(9,10,11)       =         2.251286	     128.989185
	 B(9,10,19)       =         1.977459	     113.300042
	 B(10,11,12)      =         2.088207	     119.645476
	 B(10,11,13)      =         2.161800	     123.862010
	 B(11,10,19)      =         2.050645	     117.493308
	 B(11,12,20)      =         2.044794	     117.158083
	 B(11,12,21)      =         2.000538	     114.622359
	 B(11,13,22)      =         1.953375	     111.920167
	 B(12,11,13)      =         2.033169	     116.492022
	 B(20,12,21)      =         2.237795	     128.216199
	 D(1,2,3,4)       =         0.000245	       0.014023
	 D(1,2,3,16)      =         3.139735	     179.893569
	 D(1,6,5,4)       =         0.000107	       0.006145
	 D(1,6,5,7)       =         3.139310	     179.869191
	 D(1,6,8,9)       =        -3.139529	    -179.881737
	 D(2,1,6,5)       =         0.000532	       0.030482
	 D(2,1,6,8)       =        -3.140806	    -179.954953
	 D(2,3,4,5)       =         0.000381	       0.021856
	 D(2,3,4,17)      =        -3.140274	    -179.924472
	 D(3,2,1,6)       =        -0.000706	      -0.040461
	 D(3,2,1,14)      =         3.138199	     179.805559
	 D(3,4,5,6)       =        -0.000561	      -0.032161
	 D(3,4,5,7)       =        -3.138972	    -179.849847
	 D(4,3,2,15)      =         3.141222	     179.978758
	 D(4,5,6,8)       =         3.141491	     179.994173
	 D(4,5,7,9)       =         3.140396	     179.931425
	 D(4,5,7,18)      =         0.012596	       0.721718
	 D(5,4,3,16)      =        -3.139101	    -179.857234
	 D(5,6,1,14)      =        -3.138504	    -179.823051
	 D(5,6,8,9)       =         0.002300	       0.131780
	 D(5,7,9,8)       =        -0.000241	      -0.013815
	 D(5,7,9,10)      =         3.141295	     179.982944
	 D(6,1,2,15)      =         3.141506	     179.995021
	 D(6,5,4,17)      =         3.140102	     179.914580
	 D(6,5,7,9)       =         0.001613	       0.092408
	 D(6,5,7,18)      =        -3.126187	    -179.117298
	 D(6,8,9,7)       =        -0.001279	      -0.073303
	 D(6,8,9,10)      =         3.140364	     179.929595
	 D(7,5,4,17)      =         0.001691	       0.096894
	 D(7,5,6,8)       =        -0.002492	      -0.142781
	 D(7,9,10,11)     =         3.141441	     179.991296
	 D(7,9,10,19)     =        -0.097263	      -5.572783
	 D(8,6,1,14)      =         0.003343	       0.191514
	 D(8,9,7,18)      =         3.129063	     179.282097
	*D(8,9,10,11)     =        -0.000210	      -0.012026
	 D(8,9,10,19)     =         3.044271	     174.423895
	 D(9,10,11,12)    =         3.025765	     173.363550
	 D(9,10,11,13)    =        -0.120442	      -6.900795
	 D(10,9,7,18)     =        -0.012586	      -0.721144
	 D(10,11,12,20)   =        -0.006251	      -0.358181
	 D(10,11,12,21)   =        -3.137171	    -179.746647
	 D(10,11,13,22)   =        -3.141047	    -179.968717
	 D(12,11,10,19)   =        -0.015269	      -0.874878
	 D(12,11,13,22)   =        -0.003934	      -0.225414
	 D(13,11,10,19)   =         3.121709	     178.860777
	 D(13,11,12,20)   =         3.139622	     179.887080
	 D(13,11,12,21)   =         0.008702	       0.498613
	 D(14,1,2,15)     =        -0.002774	      -0.158958
	 D(15,2,3,16)     =        -0.002473	      -0.141697
	 D(16,3,4,17)     =         0.003428	       0.196438
	 R(8,13)          =         5.064364	       2.679946

	Current energy   :      -582.2530852211

	Generating empirical Hessian (Schlegel '84) for each fragment.
	Taking RFO optimization step.
	Going to follow RFO solution 1.
	Using RFO vector 1.
	Norm of target step-size    0.41118
	Projected energy change by RFO approximation:        -0.0570255150

	Back-transformation to cartesian coordinates...
	Could not converge backtransformation.
	Using first guess instead.

	Back-transformation to cartesian coordinates to adjust frozen coordinates...
	Successfully converged to displaced geometry.

	--- Internal Coordinate Step in ANG or DEG, aJ/ANG or AJ/DEG ---
	 ---------------------------------------------------------------------------
	   Coordinate                Previous        Force       Change         New 
	   ----------                --------       ------       ------       ------
	    1 R(1,2)          =      1.404597    -0.096993    -0.009198     1.395399
	    2 R(1,6)          =      1.380349     0.117649     0.015634     1.395983
	    3 R(1,14)         =      1.079205     0.049123     0.010372     1.089576
	    4 R(2,3)          =      1.403383     0.040493     0.006052     1.409436
	    5 R(2,15)         =      1.079534     0.039570     0.007585     1.087119
	    6 R(3,4)          =      1.403052    -0.077377    -0.009415     1.393636
	    7 R(3,16)         =      1.079567     0.040244     0.007455     1.087021
	    8 R(4,5)          =      1.387625     0.032388     0.006685     1.394309
	    9 R(4,17)         =      1.079387     0.054485     0.009023     1.088410
	   10 R(5,6)          =      1.410140     0.057715     0.008255     1.418395
	   11 R(5,7)          =      1.363450     0.149061     0.018195     1.381645
	   12 R(6,8)          =      1.371493     0.140892     0.017473     1.388966
	   13 R(7,9)          =      1.361130     0.130181     0.016224     1.377355
	   14 R(7,18)         =      1.010383     0.014064     0.001746     1.012129
	   15 R(8,9)          =      1.305664     0.115690     0.012833     1.318497
	   16 R(9,10)         =      1.379502     0.044196     0.011630     1.391132
	   17 R(10,11)        =      1.316980     0.504463     0.050376     1.367357
	   18 R(10,19)        =      1.000068     0.107581     0.013399     1.013467
	   19 R(11,12)        =      1.311379     0.772173     0.086898     1.398277
	   20 R(11,13)        =      1.314920    -0.148980    -0.012696     1.302223
	   21 R(12,20)        =      1.000437     0.075693     0.012281     1.012718
	   22 R(12,21)        =      0.999421     0.023642     0.021718     1.021139
	   23 R(13,22)        =      1.000315     0.152874     0.018541     1.018855
	   24 B(1,2,3)        =    119.989256     0.000482     1.150035   121.139291
	   25 B(1,2,15)       =    120.309648    -0.000322    -0.882735   119.426914
	   26 B(1,6,5)        =    119.698408    -0.000227    -0.267961   119.430447
	   27 B(1,6,8)        =    129.701620    -0.000135    -0.368239   129.333381
	   28 B(2,1,6)        =    119.824769    -0.000490    -1.324140   118.500628
	   29 B(2,1,14)       =    122.558751    -0.000026    -0.230889   122.327862
	   30 B(2,3,4)        =    120.554796     0.000406     0.827405   121.382201
	   31 B(2,3,16)       =    119.532843    -0.000069     0.026697   119.559540
	   32 B(3,2,15)       =    119.701086    -0.000160    -0.267302   119.433785
	   33 B(3,4,5)        =    118.450361    -0.000563    -1.547043   116.903318
	   34 B(3,4,17)       =    121.146031     0.000089     0.097689   121.243720
	   35 B(4,3,16)       =    119.912251    -0.000337    -0.854050   119.058201
	   36 B(4,5,6)        =    121.482394     0.000392     1.161709   122.644102
	   37 B(4,5,7)        =    133.489031    -0.000166    -0.456437   133.032594
	   38 B(5,4,17)       =    120.403586     0.000474     1.449359   121.852945
	   39 B(5,6,8)        =    110.599970     0.000363     0.636199   111.236169
	   40 B(5,7,9)        =    105.981795     0.000167     0.670152   106.651947
	   41 B(5,7,18)       =    131.383031    -0.000831    -2.866736   128.516295
	   42 B(6,1,14)       =    117.616309     0.000516     1.555048   119.171357
	   43 B(6,5,7)        =    105.028390    -0.000226    -0.705241   104.323149
	   44 B(6,8,9)        =    103.619455    -0.000127    -0.032174   103.587281
	   45 B(7,9,8)        =    114.770195    -0.000177    -0.568903   114.201292
	   46 B(7,9,10)       =    127.606608    -0.002416    -6.499839   121.106769
	   47 B(8,9,10)       =    117.623197     0.002593     7.068362   124.691559
	   48 B(9,7,18)       =    122.630505     0.000664     2.195855   124.826360
	   49 B(9,10,11)      =    128.989185    -0.001342    -2.059707   126.929479
	   50 B(9,10,19)      =    113.300042     0.001042     2.275920   115.575962
	   51 B(10,11,12)     =    119.645476    -0.002730    -6.673189   112.972286
	   52 B(10,11,13)     =    123.862010    -0.002077    -3.998144   119.863866
	   53 B(11,10,19)     =    117.493308     0.000297    -0.214051   117.279257
	   54 B(11,12,20)     =    117.158083     0.001359     4.165246   121.323329
	   55 B(11,12,21)     =    114.622359     0.000565     2.308765   116.931124
	   56 B(11,13,22)     =    111.920167    -0.000893    -3.061416   108.858751
	   57 B(12,11,13)     =    116.492022     0.004807    10.669910   127.161933
	   58 B(20,12,21)     =    128.216199    -0.001923    -6.474280   121.741919
	   59 D(1,2,3,4)      =      0.014023     0.000000     0.001765     0.015788
	   60 D(1,2,3,16)     =    179.893569     0.000001     0.034012   179.927580
	   61 D(1,6,5,4)      =      0.006145     0.000000     0.018379     0.024524
	   62 D(1,6,5,7)      =    179.869191     0.000001     0.029160   179.898350
	   63 D(1,6,8,9)      =   -179.881737    -0.000002    -0.074393  -179.956130
	   64 D(2,1,6,5)      =      0.030482    -0.000001    -0.021613     0.008869
	   65 D(2,1,6,8)      =   -179.954953    -0.000000    -0.014119  -179.969072
	   66 D(2,3,4,5)      =      0.021856    -0.000000    -0.005293     0.016563
	   67 D(2,3,4,17)     =   -179.924472    -0.000000    -0.012716  -179.937188
	   68 D(3,2,1,6)      =     -0.040461     0.000000     0.012027    -0.028434
	   69 D(3,2,1,14)     =    179.805559     0.000001     0.022804   179.828363
	   70 D(3,4,5,6)      =     -0.032161     0.000000    -0.004542    -0.036703
	   71 D(3,4,5,7)      =   -179.849847    -0.000001    -0.019609  -179.869456
	   72 D(4,3,2,15)     =    179.978758     0.000000    -0.001283   179.977475
	   73 D(4,5,6,8)      =    179.994173     0.000000     0.012045   180.006218
	   74 D(4,5,7,9)      =    179.931425     0.000001     0.046734   179.978159
	   75 D(4,5,7,18)     =      0.721718     0.000001     0.079428     0.801146
	   76 D(5,4,3,16)     =   -179.857234    -0.000001    -0.038428  -179.895662
	   77 D(5,6,1,14)     =   -179.823051    -0.000001    -0.029497  -179.852548
	   78 D(5,6,8,9)      =      0.131780    -0.000001    -0.067297     0.064483
	   79 D(5,7,9,8)      =     -0.013815    -0.000002    -0.081140    -0.094955
	   80 D(5,7,9,10)     =    179.982944     0.000004     0.136156   180.119100
	   81 D(6,1,2,15)     =    179.995021     0.000000     0.014855   180.009876
	   82 D(6,5,4,17)     =    179.914580     0.000000     0.002165   179.916745
	   83 D(6,5,7,9)      =      0.092408     0.000001     0.031096     0.123505
	   84 D(6,5,7,18)     =   -179.117298     0.000000     0.063790  -179.053508
	   85 D(6,8,9,7)      =     -0.073303     0.000002     0.092025     0.018722
	   86 D(6,8,9,10)     =    179.929595    -0.000003    -0.133774   179.795821
	   87 D(7,5,4,17)     =      0.096894    -0.000000    -0.012902     0.083992
	   88 D(7,5,6,8)      =     -0.142781     0.000000     0.022826    -0.119955
	   89 D(7,9,10,11)    =    179.991296    -0.000005    -0.240777   179.750519
	   90 D(7,9,10,19)    =     -5.572783    -0.000006    -0.190782    -5.763566
	   91 D(8,6,1,14)     =      0.191514    -0.000000    -0.022002     0.169512
	   92 D(8,9,7,18)     =    179.282097    -0.000005    -0.161483   179.120614
	   93 *D(8,9,10,11)   =     -0.012026     0.000000     0.000000    -0.012026
	   94 D(8,9,10,19)    =    174.423895    -0.000000     0.049995   174.473889
	   95 D(9,10,11,12)   =    173.363550     0.000005     0.160041   173.523591
	   96 D(9,10,11,13)   =     -6.900795     0.000006    -0.043595    -6.944390
	   97 D(10,9,7,18)    =     -0.721144     0.000000     0.055814    -0.665331
	   98 D(10,11,12,20)  =     -0.358181    -0.000008    -0.370626    -0.728807
	   99 D(10,11,12,21)  =   -179.746647    -0.000007    -0.300767  -180.047414
	  100 D(10,11,13,22)  =   -179.968717    -0.000000     0.020952  -179.947764
	  101 D(12,11,10,19)  =     -0.874878    -0.000001    -0.005104    -0.879982
	  102 D(12,11,13,22)  =     -0.225414    -0.000003    -0.263010    -0.488424
	  103 D(13,11,10,19)  =    178.860777    -0.000000    -0.208739   178.652037
	  104 D(13,11,12,20)  =    179.887080    -0.000005    -0.106635   179.780445
	  105 D(13,11,12,21)  =      0.498613    -0.000004    -0.036775     0.461838
	  106 D(14,1,2,15)    =     -0.158958     0.000001     0.025632    -0.133326
	  107 D(15,2,3,16)    =     -0.141697     0.000001     0.030964    -0.110733
	  108 D(16,3,4,17)    =      0.196438    -0.000001    -0.045851     0.150587
	  109 R(8,13)         =      2.679946     0.101179     0.057850     2.737796
	 ---------------------------------------------------------------------------
	Successfully symmetrized geometry.

  ==> Convergence Check <==

  Measures of convergence in internal coordinates in au.
  Criteria marked as inactive (o), active & met (*), and active & unmet ( ).
  --------------------------------------------------------------------------------------------- ~
   Step     Total Energy     Delta E     MAX Force     RMS Force      MAX Disp      RMS Disp    ~
  --------------------------------------------------------------------------------------------- ~
    Convergence Criteria    1.00e-06 *    3.00e-04 *             o    1.20e-03 *             o  ~
  --------------------------------------------------------------------------------------------- ~
      1    -582.25308522   -5.82e+02      9.37e-02      1.54e-02 o    1.86e-01      4.01e-02 o  ~
  ---------------------------------------------------------------------------------------------

	Writing optimization data to binary file.
	Structure for next step:
	Cartesian Geometry (in Angstrom)
	    C    -2.1772951552  -1.5189203783   0.4192198124
	    C    -3.2555496278  -1.6338499863  -0.4590159949
	    C    -3.2792942548  -0.9301717911  -1.6799917972
	    C    -2.2293589569  -0.0947235232  -2.0566667023
	    C    -1.1579513307   0.0107210245  -1.1706273836
	    C    -1.1136997524  -0.6878691438   0.0630090035
	    N     0.0249505021   0.7239470444  -1.2021669596
	    N     0.0575100044  -0.4107933908   0.7563505047
	    C     0.6951033641   0.4286542593  -0.0356322135
	    N     1.9347337933   0.9946248278   0.2440844028
	    C     2.6980802304   0.7905046123   1.3600151122
	    N     3.9577000199   1.3918820062   1.2770630713
	    N     2.2189790901   0.1024281527   2.3564079497
	    H    -2.1400094426  -2.0516700795   1.3689377933
	    H    -4.0919702871  -2.2767856812  -0.1966011492
	    H    -4.1318007964  -1.0395594441  -2.3454857558
	    H    -2.2505027760   0.4484161580  -2.9996346096
	    H     0.3600809377   1.3575077381  -1.9167951021
	    H     2.3383629383   1.5532236067  -0.4989949724
	    H     4.2418736510   1.9070970220   0.4528075126
	    H     4.5784202754   1.2778316277   2.0798230469
	    H     2.9218474610   0.0557007033   3.0925187157
			--------------------------
			 OPTKING Finished Execution 
			--------------------------

    Structure for next step:
    Molecular point group: c1
    Full point group: C1

    Geometry (in Angstrom), charge = 0, multiplicity = 1:

    C           -2.170101098043    -1.500937170207     0.394274045454
    C           -3.248355570577    -1.615866778191    -0.483961761775
    C           -3.272100197646    -0.912188583034    -1.704937564120
    C           -2.222164899717    -0.076740315090    -2.081612469162
    C           -1.150757273561     0.028704232603    -1.195573150487
    C           -1.106505695218    -0.669885935643     0.038063236587
    N            0.032144559268     0.741930252504    -1.227112726489
    N            0.064704061631    -0.392810182659     0.731404737829
    C            0.702297421280     0.446637467380    -0.060577980448
    N            1.941927850453     1.012608035944     0.219138635935
    C            2.705274287592     0.808487820425     1.335069345299
    N            3.964894077107     1.409865214357     1.252117304354
    N            2.226173147327     0.120411360843     2.331462182819
    H           -2.132815385425    -2.033686871428     1.343992026438
    H           -4.084776229879    -2.258802473072    -0.221546916125
    H           -4.124606739213    -1.021576236027    -2.370431522694
    H           -2.243308718843     0.466399366084    -3.024580376537
    H            0.367274994880     1.375490946249    -1.941740869021
    H            2.345556995458     1.571206814836    -0.523940739304
    H            4.249067708137     1.925080230160     0.427861745699
    H            4.585614332568     1.295814835820     2.054877279957
    H            2.929041518185     0.073683911371     3.067572948800

gradient() will perform analytic gradient computation.

*** tstart() called on c-7-42
*** at Tue Dec 11 16:49:39 2018

    SCF Algorithm Type (re)set to DF.

*** tstart() called on c-7-42
*** at Tue Dec 11 16:49:39 2018

   => Loading Basis Set <=

    Name: 6-31G*
    Role: ORBITAL
    Keyword: BASIS
    atoms 1-6, 9, 11     entry C          line   102 file /beegfs/DATA/mobley/limvt/local/miniconda3/envs/oepython3/share/psi4/basis/6-31gs.gbs 
    atoms 7-8, 10, 12-13 entry N          line   119 file /beegfs/DATA/mobley/limvt/local/miniconda3/envs/oepython3/share/psi4/basis/6-31gs.gbs 
    atoms 14-22          entry H          line    35 file /beegfs/DATA/mobley/limvt/local/miniconda3/envs/oepython3/share/psi4/basis/6-31gs.gbs 


         ---------------------------------------------------------
                                   SCF
            by Justin Turney, Rob Parrish, and Andy Simmonett
                              RHF Reference
                        1 Threads,    500 MiB Core
         ---------------------------------------------------------

  ==> Geometry <==

    Molecular point group: c1
    Full point group: C1

    Geometry (in Angstrom), charge = 0, multiplicity = 1:

       Center              X                  Y                   Z               Mass       
    ------------   -----------------  -----------------  -----------------  -----------------
           C         -2.170101098043    -1.500937170207     0.394274045454    12.000000000000
           C         -3.248355570577    -1.615866778191    -0.483961761775    12.000000000000
           C         -3.272100197646    -0.912188583034    -1.704937564120    12.000000000000
           C         -2.222164899717    -0.076740315090    -2.081612469162    12.000000000000
           C         -1.150757273561     0.028704232603    -1.195573150487    12.000000000000
           C         -1.106505695218    -0.669885935643     0.038063236587    12.000000000000
           N          0.032144559268     0.741930252504    -1.227112726489    14.003074004780
           N          0.064704061631    -0.392810182659     0.731404737829    14.003074004780
           C          0.702297421280     0.446637467380    -0.060577980448    12.000000000000
           N          1.941927850453     1.012608035944     0.219138635935    14.003074004780
           C          2.705274287592     0.808487820425     1.335069345299    12.000000000000
           N          3.964894077107     1.409865214357     1.252117304354    14.003074004780
           N          2.226173147327     0.120411360843     2.331462182819    14.003074004780
           H         -2.132815385425    -2.033686871428     1.343992026438     1.007825032070
           H         -4.084776229879    -2.258802473072    -0.221546916125     1.007825032070
           H         -4.124606739213    -1.021576236027    -2.370431522694     1.007825032070
           H         -2.243308718843     0.466399366084    -3.024580376537     1.007825032070
           H          0.367274994880     1.375490946249    -1.941740869021     1.007825032070
           H          2.345556995458     1.571206814836    -0.523940739304     1.007825032070
           H          4.249067708137     1.925080230160     0.427861745699     1.007825032070
           H          4.585614332568     1.295814835820     2.054877279957     1.007825032070
           H          2.929041518185     0.073683911371     3.067572948800     1.007825032070

  Running in c1 symmetry.

  Rotational constants: A =      0.09173  B =      0.01404  C =      0.01219 [cm^-1]
  Rotational constants: A =   2750.05945  B =    420.91896  C =    365.32576 [MHz]
  Nuclear repulsion =  738.004459412097390

  Charge       = 0
  Multiplicity = 1
  Electrons    = 92
  Nalpha       = 46
  Nbeta        = 46

  ==> Algorithm <==

  SCF Algorithm Type is DF.
  DIIS enabled.
  MOM disabled.
  Fractional occupation disabled.
  Guess Type is READ.
  Energy threshold   = 1.00e-10
  Density threshold  = 1.00e-10
  Integral threshold = 0.00e+00

  ==> Primary Basis <==

  Basis Set: 6-31G*
    Blend: 6-31G*
    Number of shells: 96
    Number of basis function: 213
    Number of Cartesian functions: 213
    Spherical Harmonics?: false
    Max angular momentum: 2

   => Loading Basis Set <=

    Name: (6-31G* AUX)
    Role: JKFIT
    Keyword: DF_BASIS_SCF
    atoms 1-6, 9, 11     entry C          line   120 file /beegfs/DATA/mobley/limvt/local/miniconda3/envs/oepython3/share/psi4/basis/cc-pvdz-jkfit.gbs 
    atoms 7-8, 10, 12-13 entry N          line   170 file /beegfs/DATA/mobley/limvt/local/miniconda3/envs/oepython3/share/psi4/basis/cc-pvdz-jkfit.gbs 
    atoms 14-22          entry H          line    50 file /beegfs/DATA/mobley/limvt/local/miniconda3/envs/oepython3/share/psi4/basis/cc-pvdz-jkfit.gbs 

  Reading orbitals from file 180, no projection.

  ==> Pre-Iterations <==

   -------------------------------------------------------
    Irrep   Nso     Nmo     Nalpha   Nbeta   Ndocc  Nsocc
   -------------------------------------------------------
     A        213     213       0       0       0       0
   -------------------------------------------------------
    Total     213     213      46      46      46       0
   -------------------------------------------------------

  ==> Integral Setup <==

  ==> DFJK: Density-Fitted J/K Matrices <==

    J tasked:                  Yes
    K tasked:                  Yes
    wK tasked:                  No
    OpenMP threads:              1
    Integrals threads:           1
    Memory (MB):               375
    Algorithm:                Core
    Integral Cache:           NONE
    Schwarz Cutoff:          1E-12
    Fitting Condition:       1E-12

   => Auxiliary Basis Set <=

  Basis Set: (6-31G* AUX)
    Blend: CC-PVDZ-JKFIT
    Number of shells: 393
    Number of basis function: 1278
    Number of Cartesian functions: 1278
    Spherical Harmonics?: false
    Max angular momentum: 3

  Minimum eigenvalue in the overlap matrix is 3.8861668189E-04.
  Using Symmetric Orthogonalization.

  SCF Guess: Orbitals guess was supplied from a previous computation.

  ==> Iterations <==

                           Total Energy        Delta E     RMS |[F,P]|

   @DF-RHF iter   0:  -580.24517069982801   -5.80245e+02   1.92135e-03 
   @DF-RHF iter   1:  -580.40521311784414   -1.60042e-01   4.09563e-04 
   @DF-RHF iter   2:  -580.40806435187460   -2.85123e-03   2.75332e-04 DIIS
   @DF-RHF iter   3:  -580.40954643163514   -1.48208e-03   4.79761e-05 DIIS
   @DF-RHF iter   4:  -580.40963486833959   -8.84367e-05   1.37946e-05 DIIS
   @DF-RHF iter   5:  -580.40964012941731   -5.26108e-06   4.53470e-06 DIIS
   @DF-RHF iter   6:  -580.40964126213794   -1.13272e-06   1.94182e-06 DIIS
   @DF-RHF iter   7:  -580.40964153118352   -2.69046e-07   7.31657e-07 DIIS
   @DF-RHF iter   8:  -580.40964158629345   -5.51099e-08   2.94050e-07 DIIS
   @DF-RHF iter   9:  -580.40964159696216   -1.06687e-08   9.22452e-08 DIIS
   @DF-RHF iter  10:  -580.40964159795180   -9.89644e-10   4.10038e-08 DIIS
   @DF-RHF iter  11:  -580.40964159812700   -1.75191e-10   1.84416e-08 DIIS
   @DF-RHF iter  12:  -580.40964159816815   -4.11546e-11   6.78730e-09 DIIS
   @DF-RHF iter  13:  -580.40964159817179   -3.63798e-12   3.24400e-09 DIIS
   @DF-RHF iter  14:  -580.40964159816883    2.95586e-12   1.28366e-09 DIIS
   @DF-RHF iter  15:  -580.40964159817020   -1.36424e-12   3.71555e-10 DIIS
   @DF-RHF iter  16:  -580.40964159817099   -7.95808e-13   1.25897e-10 DIIS
   @DF-RHF iter  17:  -580.40964159817258   -1.59162e-12   4.68629e-11 DIIS

  ==> Post-Iterations <==

    Orbital Energies (a.u.)
    -----------------------

    Doubly Occupied:                                                      

       1A    -15.622358     2A    -15.620079     3A    -15.596046  
       4A    -15.526691     5A    -15.506064     6A    -11.359149  
       7A    -11.355092     8A    -11.264200     9A    -11.241455  
      10A    -11.231579    11A    -11.222713    12A    -11.218520  
      13A    -11.217229    14A     -1.358918    15A     -1.302635  
      16A     -1.199422    17A     -1.168629    18A     -1.126563  
      19A     -1.115171    20A     -0.995728    21A     -0.983175  
      22A     -0.881176    23A     -0.833458    24A     -0.815147  
      25A     -0.781583    26A     -0.751520    27A     -0.731051  
      28A     -0.707243    29A     -0.665967    30A     -0.652868  
      31A     -0.630792    32A     -0.609626    33A     -0.597574  
      34A     -0.587924    35A     -0.580080    36A     -0.568793  
      37A     -0.505298    38A     -0.497406    39A     -0.476244  
      40A     -0.441961    41A     -0.439786    42A     -0.403157  
      43A     -0.386197    44A     -0.347867    45A     -0.300394  
      46A     -0.272328  

    Virtual:                                                              

      47A      0.142726    48A      0.169922    49A      0.177821  
      50A      0.206896    51A      0.220499    52A      0.243103  
      53A      0.254126    54A      0.277368    55A      0.285944  
      56A      0.303301    57A      0.322870    58A      0.330277  
      59A      0.342875    60A      0.386496    61A      0.396955  
      62A      0.435221    63A      0.454545    64A      0.470013  
      65A      0.471750    66A      0.505686    67A      0.521430  
      68A      0.542678    69A      0.572017    70A      0.594089  
      71A      0.640860    72A      0.668800    73A      0.715144  
      74A      0.722511    75A      0.747382    76A      0.752312  
      77A      0.771058    78A      0.773641    79A      0.789309  
      80A      0.805304    81A      0.825966    82A      0.826667  
      83A      0.833557    84A      0.839315    85A      0.839943  
      86A      0.849169    87A      0.863118    88A      0.876620  
      89A      0.878121    90A      0.891858    91A      0.927205  
      92A      0.938164    93A      0.947648    94A      0.969670  
      95A      0.984350    96A      1.018512    97A      1.043405  
      98A      1.047499    99A      1.080030   100A      1.083513  
     101A      1.108304   102A      1.111070   103A      1.117520  
     104A      1.131845   105A      1.135584   106A      1.146321  
     107A      1.163319   108A      1.170657   109A      1.175755  
     110A      1.181597   111A      1.202317   112A      1.213947  
     113A      1.224572   114A      1.229705   115A      1.256463  
     116A      1.276678   117A      1.310430   118A      1.330178  
     119A      1.361195   120A      1.402816   121A      1.427141  
     122A      1.455153   123A      1.479426   124A      1.497878  
     125A      1.547540   126A      1.553201   127A      1.572635  
     128A      1.585158   129A      1.602900   130A      1.617067  
     131A      1.644798   132A      1.676578   133A      1.687321  
     134A      1.714361   135A      1.737845   136A      1.746692  
     137A      1.763063   138A      1.778900   139A      1.791201  
     140A      1.793688   141A      1.813728   142A      1.833248  
     143A      1.935529   144A      1.968536   145A      2.031971  
     146A      2.048257   147A      2.065502   148A      2.099886  
     149A      2.135753   150A      2.144757   151A      2.159056  
     152A      2.196236   153A      2.208190   154A      2.222944  
     155A      2.233118   156A      2.276917   157A      2.305380  
     158A      2.327936   159A      2.369517   160A      2.373626  
     161A      2.396652   162A      2.405068   163A      2.441729  
     164A      2.463627   165A      2.494603   166A      2.512984  
     167A      2.530268   168A      2.584032   169A      2.596726  
     170A      2.599335   171A      2.617012   172A      2.633939  
     173A      2.682676   174A      2.712688   175A      2.754313  
     176A      2.758947   177A      2.770764   178A      2.824985  
     179A      2.835880   180A      2.888990   181A      2.915020  
     182A      2.945588   183A      2.958706   184A      2.993459  
     185A      3.001945   186A      3.030668   187A      3.035533  
     188A      3.041751   189A      3.089226   190A      3.121820  
     191A      3.130204   192A      3.204490   193A      3.215914  
     194A      3.273138   195A      3.325170   196A      3.377912  
     197A      3.572298   198A      3.612124   199A      3.657602  
     200A      3.867383   201A      4.207798   202A      4.392419  
     203A      4.496976   204A      4.510443   205A      4.530504  
     206A      4.567346   207A      4.667589   208A      4.703441  
     209A      4.815370   210A      4.839316   211A      4.853326  
     212A      4.928969   213A      5.206983  

    Final Occupation by Irrep:
              A 
    DOCC [    46 ]

  Energy converged.

  @DF-RHF Final Energy:  -580.40964159817258

   => Energetics <=

    Nuclear Repulsion Energy =            738.0044594120973898
    One-Electron Energy =               -2253.4344822971188478
    Two-Electron Energy =                 935.0203812868489877
    DFT Exchange-Correlation Energy =       0.0000000000000000
    Empirical Dispersion Energy =           0.0000000000000000
    PCM Polarization Energy =               0.0000000000000000
    EFP Energy =                            0.0000000000000000
    Total Energy =                       -580.4096415981725841



Properties will be evaluated at   0.000000,   0.000000,   0.000000 Bohr

Properties computed using the SCF density matrix

  Nuclear Dipole Moment: (a.u.)
     X:     1.7489      Y:     1.2981      Z:    -1.1233

  Electronic Dipole Moment: (a.u.)
     X:     0.0343      Y:     0.4038      Z:    -0.4801

  Dipole Moment: (a.u.)
     X:     1.7832      Y:     1.7019      Z:    -1.6033     Total:     2.9406

  Dipole Moment: (Debye)
     X:     4.5325      Y:     4.3258      Z:    -4.0753     Total:     7.4742


*** tstop() called on c-7-42 at Tue Dec 11 16:50:31 2018
Module time:
	user time   =      50.42 seconds =       0.84 minutes
	system time =       0.63 seconds =       0.01 minutes
	total time  =         52 seconds =       0.87 minutes
Total time:
	user time   =     271.50 seconds =       4.53 minutes
	system time =       4.29 seconds =       0.07 minutes
	total time  =        282 seconds =       4.70 minutes

  //>>>>>>>>>>>>>>>>>>>>>>>>>>>>>>>>>>>//
  //               DFMP2               //
  //<<<<<<<<<<<<<<<<<<<<<<<<<<<<<<<<<<<//

   => Loading Basis Set <=

    Name: (6-31G* AUX)
    Role: RIFIT
    Keyword: DF_BASIS_MP2
    atoms 1-6, 9, 11     entry C          line   158 file /beegfs/DATA/mobley/limvt/local/miniconda3/envs/oepython3/share/psi4/basis/cc-pvdz-ri.gbs 
    atoms 7-8, 10, 12-13 entry N          line   196 file /beegfs/DATA/mobley/limvt/local/miniconda3/envs/oepython3/share/psi4/basis/cc-pvdz-ri.gbs 
    atoms 14-22          entry H          line    18 file /beegfs/DATA/mobley/limvt/local/miniconda3/envs/oepython3/share/psi4/basis/cc-pvdz-ri.gbs 

	 --------------------------------------------------------
	                          DF-MP2                         
	      2nd-Order Density-Fitted Moller-Plesset Theory     
	              RMP2 Wavefunction,   1 Threads             
	                                                         
	        Rob Parrish, Justin Turney, Andy Simmonett,      
	           Ed Hohenstein, and C. David Sherrill          
	 --------------------------------------------------------

   => Auxiliary Basis Set <=

  Basis Set: (6-31G* AUX)
    Blend: CC-PVDZ-RI
    Number of shells: 288
    Number of basis function: 854
    Number of Cartesian functions: 993
    Spherical Harmonics?: true
    Max angular momentum: 3

	 --------------------------------------------------------
	                 NBF =   213, NAUX =   854
	 --------------------------------------------------------
	   CLASS    FOCC     OCC    AOCC    AVIR     VIR    FVIR
	   PAIRS       0      46      46     167     167       0
	 --------------------------------------------------------


         ------------------------------------------------------------
                                     CPHF                           
                                  Rob Parrish                       
         ------------------------------------------------------------

  ==> Geometry <==

    Molecular point group: c1
    Full point group: C1

    Geometry (in Angstrom), charge = 0, multiplicity = 1:

       Center              X                  Y                   Z               Mass       
    ------------   -----------------  -----------------  -----------------  -----------------
           C         -2.170101098043    -1.500937170207     0.394274045454    12.000000000000
           C         -3.248355570577    -1.615866778191    -0.483961761775    12.000000000000
           C         -3.272100197646    -0.912188583034    -1.704937564120    12.000000000000
           C         -2.222164899717    -0.076740315090    -2.081612469162    12.000000000000
           C         -1.150757273561     0.028704232603    -1.195573150487    12.000000000000
           C         -1.106505695218    -0.669885935643     0.038063236587    12.000000000000
           N          0.032144559268     0.741930252504    -1.227112726489    14.003074004780
           N          0.064704061631    -0.392810182659     0.731404737829    14.003074004780
           C          0.702297421280     0.446637467380    -0.060577980448    12.000000000000
           N          1.941927850453     1.012608035944     0.219138635935    14.003074004780
           C          2.705274287592     0.808487820425     1.335069345299    12.000000000000
           N          3.964894077107     1.409865214357     1.252117304354    14.003074004780
           N          2.226173147327     0.120411360843     2.331462182819    14.003074004780
           H         -2.132815385425    -2.033686871428     1.343992026438     1.007825032070
           H         -4.084776229879    -2.258802473072    -0.221546916125     1.007825032070
           H         -4.124606739213    -1.021576236027    -2.370431522694     1.007825032070
           H         -2.243308718843     0.466399366084    -3.024580376537     1.007825032070
           H          0.367274994880     1.375490946249    -1.941740869021     1.007825032070
           H          2.345556995458     1.571206814836    -0.523940739304     1.007825032070
           H          4.249067708137     1.925080230160     0.427861745699     1.007825032070
           H          4.585614332568     1.295814835820     2.054877279957     1.007825032070
           H          2.929041518185     0.073683911371     3.067572948800     1.007825032070

  Nuclear repulsion =  738.004459412097390
  Reference energy  = -580.409641598172584

  ==> Basis Set <==

  Basis Set: 6-31G*
    Blend: 6-31G*
    Number of shells: 96
    Number of basis function: 213
    Number of Cartesian functions: 213
    Spherical Harmonics?: false
    Max angular momentum: 2

  ==> CGRSolver (by Rob Parrish) <==

   Number of roots    =         1
   Preconditioning    =    JACOBI
   Convergence cutoff =     1E-06
   Maximum iterations =       100

  ==> CPHFRHamiltonian (by Rob Parrish) <== 

  ==> DFJK: Density-Fitted J/K Matrices <==

    J tasked:                  Yes
    K tasked:                  Yes
    wK tasked:                  No
    OpenMP threads:              1
    Integrals threads:           1
    Memory (MB):               375
    Algorithm:                Core
    Integral Cache:           NONE
    Schwarz Cutoff:          1E-12
    Fitting Condition:       1E-12

   => Auxiliary Basis Set <=

  Basis Set: (6-31G* AUX)
    Blend: CC-PVDZ-JKFIT
    Number of shells: 393
    Number of basis function: 1278
    Number of Cartesian functions: 1278
    Spherical Harmonics?: false
    Max angular momentum: 3

  ==> CPHF Iterations <==

  => Iterations <=

             Iter  Converged  Remaining    Residual
  CGR           1          0          1   1.178E-01
  CGR           2          0          1   3.663E-02
  CGR           3          0          1   1.733E-02
  CGR           4          0          1   6.026E-03
  CGR           5          0          1   3.079E-03
  CGR           6          0          1   1.363E-03
  CGR           7          0          1   5.265E-04
  CGR           8          0          1   1.904E-04
  CGR           9          0          1   6.468E-05
  CGR          10          0          1   2.887E-05
  CGR          11          0          1   1.026E-05
  CGR          12          0          1   5.018E-06
  CGR          13          0          1   2.326E-06
  CGR          14          1          0   7.494E-07

    CGRSolver converged.

  ==> DFCorrGrad: Density-Fitted Correlated Gradients <==

    OpenMP threads:              1
    Integrals threads:           1
    Memory (MB):               375
    Schwarz Cutoff:          0E+00
    Fitting Condition:       1E-12

   => Auxiliary Basis Set <=

  Basis Set: (6-31G* AUX)
    Blend: CC-PVDZ-JKFIT
    Number of shells: 393
    Number of basis function: 1278
    Number of Cartesian functions: 1278
    Spherical Harmonics?: false
    Max angular momentum: 3

	-----------------------------------------------------------
	 ==================> DF-MP2 Energies <==================== 
	-----------------------------------------------------------
	 Reference Energy          =    -580.4096415981725841 [Eh]
	 Singles Energy            =      -0.0000000000000000 [Eh]
	 Same-Spin Energy          =      -0.5122945885819969 [Eh]
	 Opposite-Spin Energy      =      -1.3639889475679032 [Eh]
	 Correlation Energy        =      -1.8762835361499002 [Eh]
	 Total Energy              =    -582.2859251343224969 [Eh]
	-----------------------------------------------------------
	 ================> DF-SCS-MP2 Energies <================== 
	-----------------------------------------------------------
	 SCS Same-Spin Scale       =       0.3333333333333333 [-]
	 SCS Opposite-Spin Scale   =       1.2000000000000000 [-]
	 SCS Same-Spin Energy      =      -0.1707648628606656 [Eh]
	 SCS Opposite-Spin Energy  =      -1.6367867370814839 [Eh]
	 SCS Correlation Energy    =      -1.8075515999421496 [Eh]
	 SCS Total Energy          =    -582.2171931981147281 [Eh]
	-----------------------------------------------------------


  -Total Gradient:
     Atom            X                  Y                   Z
    ------   -----------------  -----------------  -----------------
       1        0.002761070191     0.002462531066    -0.001476155676
       2       -0.004027394754    -0.001568315614    -0.001380417270
       3       -0.001510815572     0.000306143973    -0.001724562625
       4       -0.000559184629    -0.001174840112     0.001524128479
       5        0.004046739491     0.003001618924    -0.001594225168
       6       -0.001795971998    -0.004826570853     0.006346429455
       7       -0.008425188103    -0.004688200357    -0.000129330926
       8        0.004733835339    -0.000967022714     0.007620807809
       9       -0.003128835637     0.009999092459    -0.020759036670
      10        0.013246502965    -0.010049713742     0.032665211599
      11       -0.006875428609     0.016046747138    -0.040074398312
      12        0.010059395979     0.005720685817    -0.003411215381
      13       -0.009882210745    -0.013322945110     0.017130397899
      14        0.001276417388    -0.000325306847     0.001991754643
      15       -0.000066881888    -0.000239433608     0.000341221689
      16        0.000028663239     0.000044371489    -0.000251398232
      17        0.000383121774     0.000442170528    -0.000293169547
      18        0.004219121264     0.000729691883     0.002375858505
      19        0.000915369166     0.001408330400    -0.001428798489
      20       -0.005166245512     0.001929276067    -0.007422391290
      21        0.004002046859    -0.005122291779     0.013595852709
      22       -0.004234126215     0.000193980995    -0.003646563186


*** tstop() called on c-7-42 at Tue Dec 11 16:53:13 2018
Module time:
	user time   =     207.61 seconds =       3.46 minutes
	system time =       3.43 seconds =       0.06 minutes
	total time  =        214 seconds =       3.57 minutes
Total time:
	user time   =     428.69 seconds =       7.14 minutes
	system time =       7.09 seconds =       0.12 minutes
	total time  =        444 seconds =       7.40 minutes

			-----------------------------------------
			 OPTKING 2.0: for geometry optimizations 
			  - R.A. King,  Bethel University        
			-----------------------------------------

	Previous internal coordinate definitions found.
	---Fragment 1 Geometry and Gradient---
	 C          -4.1008967560       -2.8363601944        0.7450699672
	 C          -6.1385024106       -3.0535456780       -0.9145551885
	 C          -6.1833732529       -1.7237866035       -3.2218650699
	 C          -4.1992830826       -0.1450181789       -3.9336774815
	 C          -2.1746160925        0.0542431385       -2.2593058263
	 C          -2.0909927284       -1.2659009586        0.0719290929
	 N           0.0607444137        1.4020449869       -2.3189069872
	 N           0.1222729562       -0.7423036674        1.3821546468
	 C           1.3271497901        0.8440224940       -0.1144757927
	 N           3.6697118072        1.9135518679        0.4141120071
	 C           5.1122275179        1.5278205624        2.5229154310
	 N           7.4925639516        2.6642591394        2.3661587915
	 N           4.2068575728        0.2275444953        4.4058250147
	 H          -4.0304369705       -3.8431112270        2.5397768547
	 H          -7.7191083886       -4.2685180624       -0.4186629971
	 H          -7.7943771430       -1.9304993100       -4.4794663946
	 H          -4.2392391101        0.8813670705       -5.7156285786
	 H           0.6940491558        2.5993011867       -3.6693584635
	 H           4.4324603505        2.9691505782       -0.9901045071
	 H           8.0295742885        3.6378744188        0.8085415221
	 H           8.6655552396        2.4487351586        3.8831552958
	 H           5.5350863012        0.1392424129        5.7968727659
	             0.0027610702        0.0024625311       -0.0014761557
	            -0.0040273948       -0.0015683156       -0.0013804173
	            -0.0015108156        0.0003061440       -0.0017245626
	            -0.0005591846       -0.0011748401        0.0015241285
	             0.0040467395        0.0030016189       -0.0015942252
	            -0.0017959720       -0.0048265709        0.0063464295
	            -0.0084251881       -0.0046882004       -0.0001293309
	             0.0047338353       -0.0009670227        0.0076208078
	            -0.0031288356        0.0099990925       -0.0207590367
	             0.0132465030       -0.0100497137        0.0326652116
	            -0.0068754286        0.0160467471       -0.0400743983
	             0.0100593960        0.0057206858       -0.0034112154
	            -0.0098822107       -0.0133229451        0.0171303979
	             0.0012764174       -0.0003253068        0.0019917546
	            -0.0000668819       -0.0002394336        0.0003412217
	             0.0000286632        0.0000443715       -0.0002513982
	             0.0003831218        0.0004421705       -0.0002931695
	             0.0042191213        0.0007296919        0.0023758585
	             0.0009153692        0.0014083304       -0.0014287985
	            -0.0051662455        0.0019292761       -0.0074223913
	             0.0040020469       -0.0051222918        0.0135958527
	            -0.0042341262        0.0001939810       -0.0036465632

	---Fragment 1 Intrafragment Coordinates---
	 - Coordinate -           - BOHR/RAD -       - ANG/DEG -
	 R(1,2)           =         2.636923	       1.395399
	 R(1,6)           =         2.638025	       1.395983
	 R(1,14)          =         2.059001	       1.089576
	 R(2,3)           =         2.663447	       1.409436
	 R(2,15)          =         2.054357	       1.087119
	 R(3,4)           =         2.633591	       1.393636
	 R(3,16)          =         2.054173	       1.087021
	 R(4,5)           =         2.634863	       1.394309
	 R(4,17)          =         2.056797	       1.088410
	 R(5,6)           =         2.680379	       1.418395
	 R(5,7)           =         2.610931	       1.381645
	 R(6,8)           =         2.624765	       1.388966
	 R(7,9)           =         2.602823	       1.377355
	 R(7,18)          =         1.912646	       1.012129
	 R(8,9)           =         2.491598	       1.318497
	 R(9,10)          =         2.628858	       1.391132
	 R(10,11)         =         2.583930	       1.367357
	 R(10,19)         =         1.915176	       1.013467
	 R(11,12)         =         2.642360	       1.398277
	 R(11,13)         =         2.460846	       1.302223
	 R(12,20)         =         1.913760	       1.012718
	 R(12,21)         =         1.929673	       1.021139
	 R(13,22)         =         1.925358	       1.018855
	 B(1,2,3)         =         2.114279	     121.139291
	 B(1,2,15)        =         2.084393	     119.426914
	 B(1,6,5)         =         2.084455	     119.430447
	 B(1,6,8)         =         2.257293	     129.333381
	 B(2,1,6)         =         2.068226	     118.500628
	 B(2,1,14)        =         2.135024	     122.327862
	 B(2,3,4)         =         2.118519	     121.382201
	 B(2,3,16)        =         2.086708	     119.559540
	 B(3,2,15)        =         2.084513	     119.433785
	 B(3,4,5)         =         2.040348	     116.903318
	 B(3,4,17)        =         2.116102	     121.243720
	 B(4,3,16)        =         2.077958	     119.058201
	 B(4,5,6)         =         2.140543	     122.644102
	 B(4,5,7)         =         2.321857	     133.032594
	 B(5,4,17)        =         2.126735	     121.852945
	 B(5,6,8)         =         1.941437	     111.236169
	 B(5,7,9)         =         1.861428	     106.651947
	 B(5,7,18)        =         2.243032	     128.516295
	 B(6,1,14)        =         2.079933	     119.171357
	 B(6,5,7)         =         1.820782	     104.323149
	 B(6,8,9)         =         1.807939	     103.587281
	 B(7,9,8)         =         1.993189	     114.201292
[...]
	              RMP2 Wavefunction,   1 Threads             
	                                                         
	        Rob Parrish, Justin Turney, Andy Simmonett,      
	           Ed Hohenstein, and C. David Sherrill          
	 --------------------------------------------------------

   => Auxiliary Basis Set <=

  Basis Set: (6-31G* AUX)
    Blend: CC-PVDZ-RI
    Number of shells: 288
    Number of basis function: 854
    Number of Cartesian functions: 993
    Spherical Harmonics?: true
    Max angular momentum: 3

	 --------------------------------------------------------
	                 NBF =   213, NAUX =   854
	 --------------------------------------------------------
	   CLASS    FOCC     OCC    AOCC    AVIR     VIR    FVIR
	   PAIRS       0      46      46     167     167       0
	 --------------------------------------------------------


         ------------------------------------------------------------
                                     CPHF                           
                                  Rob Parrish                       
         ------------------------------------------------------------

  ==> Geometry <==

    Molecular point group: c1
    Full point group: C1

    Geometry (in Angstrom), charge = 0, multiplicity = 1:

       Center              X                  Y                   Z               Mass       
    ------------   -----------------  -----------------  -----------------  -----------------
           C         -2.215340416416    -1.077369539531     0.730467722225    12.000000000000
           C         -3.374000651318    -1.148304625145    -0.035371143501    12.000000000000
           C         -3.432899068459    -0.603543473673    -1.332174822464    12.000000000000
           C         -2.329913388766     0.017947980385    -1.911654791001    12.000000000000
           C         -1.177815287597     0.092281341471    -1.131217731343    12.000000000000
           C         -1.099313843636    -0.445967935373     0.173103105077    12.000000000000
           N          0.089436666395     0.601996677817    -1.373770354500    14.003074004780
           N          0.165629504622    -0.249251449820     0.717251538921    14.003074004780
           C          0.820028893341     0.388829845993    -0.227677216854    12.000000000000
           N          2.130433810630     0.852525866791    -0.148935031953    14.003074004780
           C          2.778146970621     0.583153898299     1.097872016219    12.000000000000
           N          3.555419657208    -0.585656971145     1.049457965780    14.003074004780
           N          2.655760327864     1.450568233582     2.033102347736    14.003074004780
           H         -2.165650835472    -1.493642467948     1.733030442807     1.007825032070
           H         -4.258017989163    -1.629294062562     0.375596427156     1.007825032070
           H         -4.357991435729    -0.676452834620    -1.898127698770     1.007825032070
           H         -2.377296310319     0.435264160335    -2.914643112098     1.007825032070
           H          0.332422014036     1.277899329798    -2.088103531645     1.007825032070
           H          2.696038179720     0.545962284716    -0.940174774112     1.007825032070
           H          3.048750357976    -1.379700270170     0.655997755188     1.007825032070
           H          3.973603102776    -0.837031532182     1.942035614250     1.007825032070
           H          3.101530396726     1.104504557750     2.889647962484     1.007825032070

  Nuclear repulsion =  742.699704918969474
  Reference energy  = -580.421353101659065

  ==> Basis Set <==

  Basis Set: 6-31G*
    Blend: 6-31G*
    Number of shells: 96
    Number of basis function: 213
    Number of Cartesian functions: 213
    Spherical Harmonics?: false
    Max angular momentum: 2

  ==> CGRSolver (by Rob Parrish) <==

   Number of roots    =         1
   Preconditioning    =    JACOBI
   Convergence cutoff =     1E-06
   Maximum iterations =       100

  ==> CPHFRHamiltonian (by Rob Parrish) <== 

  ==> DFJK: Density-Fitted J/K Matrices <==

    J tasked:                  Yes
    K tasked:                  Yes
    wK tasked:                  No
    OpenMP threads:              1
    Integrals threads:           1
    Memory (MB):               375
    Algorithm:                Core
    Integral Cache:           NONE
    Schwarz Cutoff:          1E-12
    Fitting Condition:       1E-12

   => Auxiliary Basis Set <=

  Basis Set: (6-31G* AUX)
    Blend: CC-PVDZ-JKFIT
    Number of shells: 393
    Number of basis function: 1278
    Number of Cartesian functions: 1278
    Spherical Harmonics?: false
    Max angular momentum: 3

  ==> CPHF Iterations <==

  => Iterations <=

             Iter  Converged  Remaining    Residual
  CGR           1          0          1   1.160E-01
  CGR           2          0          1   3.519E-02
  CGR           3          0          1   1.732E-02
  CGR           4          0          1   5.737E-03
  CGR           5          0          1   2.947E-03
  CGR           6          0          1   1.253E-03
  CGR           7          0          1   5.010E-04
  CGR           8          0          1   1.862E-04
  CGR           9          0          1   6.517E-05
  CGR          10          0          1   2.836E-05
  CGR          11          0          1   1.033E-05
  CGR          12          0          1   4.893E-06
  CGR          13          0          1   2.262E-06
  CGR          14          1          0   7.602E-07

    CGRSolver converged.

  ==> DFCorrGrad: Density-Fitted Correlated Gradients <==

    OpenMP threads:              1
    Integrals threads:           1
    Memory (MB):               375
    Schwarz Cutoff:          0E+00
    Fitting Condition:       1E-12

   => Auxiliary Basis Set <=

  Basis Set: (6-31G* AUX)
    Blend: CC-PVDZ-JKFIT
    Number of shells: 393
    Number of basis function: 1278
    Number of Cartesian functions: 1278
    Spherical Harmonics?: false
    Max angular momentum: 3

	-----------------------------------------------------------
	 ==================> DF-MP2 Energies <==================== 
	-----------------------------------------------------------
	 Reference Energy          =    -580.4213531016590650 [Eh]
	 Singles Energy            =      -0.0000000000000001 [Eh]
	 Same-Spin Energy          =      -0.5116109996921109 [Eh]
	 Opposite-Spin Energy      =      -1.3658691773059290 [Eh]
	 Correlation Energy        =      -1.8774801769980400 [Eh]
	 Total Energy              =    -582.2988332786570709 [Eh]
	-----------------------------------------------------------
	 ================> DF-SCS-MP2 Energies <================== 
	-----------------------------------------------------------
	 SCS Same-Spin Scale       =       0.3333333333333333 [-]
	 SCS Opposite-Spin Scale   =       1.2000000000000000 [-]
	 SCS Same-Spin Energy      =      -0.1705369998973703 [Eh]
	 SCS Opposite-Spin Energy  =      -1.6390430127671147 [Eh]
	 SCS Correlation Energy    =      -1.8095800126644850 [Eh]
	 SCS Total Energy          =    -582.2309331143235340 [Eh]
	-----------------------------------------------------------


  -Total Gradient:
     Atom            X                  Y                   Z
    ------   -----------------  -----------------  -----------------
       1       -0.000206172802    -0.000147644625    -0.000052468945
       2        0.000077402597     0.000004231086     0.000057793552
       3       -0.000101780045    -0.000018538104    -0.000057863258
       4        0.000160811274     0.000047805848    -0.000109745198
       5       -0.000697446138    -0.000346454607    -0.000100234595
       6        0.000700252314    -0.000355224762    -0.000123270664
       7        0.000936540247    -0.000304092645     0.000301430787
       8       -0.000699728035     0.003110798995     0.001735792793
       9        0.002300375753    -0.002626104325    -0.001558115436
      10       -0.001714736098     0.004222584047     0.000455733611
      11       -0.001038955218    -0.003052130820    -0.003715948635
      12        0.003354596853    -0.001344281078     0.000596243021
      13       -0.002035050439     0.004677154715     0.004046406085
      14       -0.000010465548    -0.000034889292     0.000098069117
      15       -0.000126662265    -0.000052004079     0.000072176545
      16       -0.000057821771     0.000011024810    -0.000019301600
      17        0.000005017885     0.000044835985    -0.000098635881
      18       -0.000237153517     0.000226758438     0.000021275872
      19       -0.000531940207    -0.000448932447    -0.000736493977
      20       -0.001009743321    -0.002906834772    -0.001442873124
      21        0.000846265065    -0.000672676333     0.000540169372
      22        0.000086393407    -0.000035386037     0.000089860559


*** tstop() called on c-7-42 at Tue Dec 11 18:29:59 2018
Module time:
	user time   =     179.72 seconds =       3.00 minutes
	system time =       2.72 seconds =       0.05 minutes
	total time  =        183 seconds =       3.05 minutes
Total time:
	user time   =    6098.28 seconds =     101.64 minutes
	system time =      95.46 seconds =       1.59 minutes
	total time  =       6250 seconds =     104.17 minutes

			-----------------------------------------
			 OPTKING 2.0: for geometry optimizations 
			  - R.A. King,  Bethel University        
			-----------------------------------------

	Previous internal coordinate definitions found.
	---Fragment 1 Geometry and Gradient---
	 C          -4.1863866781       -2.0359333736        1.3803839439
	 C          -6.3759372032       -2.1699812587       -0.0668417742
	 C          -6.4872390812       -1.1405318745       -2.5174455756
	 C          -4.4028982181        0.0339167676       -3.6125040156
	 C          -2.2257483287        0.1743864626       -2.1376917089
	 C          -2.0774020986       -0.8427572619        0.3271174613
	 N           0.1690108057        1.1376088540       -2.5960497395
	 N           0.3129944033       -0.4710169784        1.3554089770
	 C           1.5496300295        0.7347819212       -0.4302475866
	 N           4.0259364463        1.6110404094       -0.2814464220
	 C           5.2499369314        1.1020011611        2.0746774396
	 N           6.7187694396       -1.1067312833        1.9831881433
	 N           5.0186596942        2.7411766985        3.8420066373
	 H          -4.0924869785       -2.8225752049        3.2749529169
	 H          -8.0464878684       -3.0789195682        0.7097743838
	 H          -8.2354103030       -1.2783105992       -3.5869415159
	 H          -4.4924389632        0.8225300585       -5.5078772570
	 H           0.6281865671        2.4148797587       -3.9459438119
	 H           5.0947738035        1.0317191970       -1.7766728401
	 H           5.7613032241       -2.6072556561        1.2396561011
	 H           7.5090216250       -1.5817603604        3.6699154512
	 H           5.8610430426        2.0872111267        5.4606432695
	            -0.0002061728       -0.0001476446       -0.0000524689
	             0.0000774026        0.0000042311        0.0000577936
	            -0.0001017800       -0.0000185381       -0.0000578633
	             0.0001608113        0.0000478058       -0.0001097452
	            -0.0006974461       -0.0003464546       -0.0001002346
	             0.0007002523       -0.0003552248       -0.0001232707
	             0.0009365402       -0.0003040926        0.0003014308
	            -0.0006997280        0.0031107990        0.0017357928
	             0.0023003758       -0.0026261043       -0.0015581154
	            -0.0017147361        0.0042225840        0.0004557336
	            -0.0010389552       -0.0030521308       -0.0037159486
	             0.0033545969       -0.0013442811        0.0005962430
	            -0.0020350504        0.0046771547        0.0040464061
	            -0.0000104655       -0.0000348893        0.0000980691
	            -0.0001266623       -0.0000520041        0.0000721765
	            -0.0000578218        0.0000110248       -0.0000193016
	             0.0000050179        0.0000448360       -0.0000986359
	            -0.0002371535        0.0002267584        0.0000212759
	            -0.0005319402       -0.0004489324       -0.0007364940
	            -0.0010097433       -0.0029068348       -0.0014428731
	             0.0008462651       -0.0006726763        0.0005401694
	             0.0000863934       -0.0000353860        0.0000898606

	---Fragment 1 Intrafragment Coordinates---
	 - Coordinate -           - BOHR/RAD -       - ANG/DEG -
	 R(1,2)           =         2.628034	       1.390696
	 R(1,6)           =         2.642131	       1.398155
	 R(1,14)          =         2.053537	       1.086685
	 R(2,3)           =         2.660378	       1.407812
	 R(2,15)          =         2.054274	       1.087075
	 R(3,4)           =         2.631152	       1.392346
	 R(3,16)          =         2.053998	       1.086929
	 R(4,5)           =         2.633398	       1.393534
	 R(4,17)          =         2.054840	       1.087375
	 R(5,6)           =         2.670557	       1.413198
	 R(5,7)           =         2.621595	       1.387288
	 R(6,8)           =         2.628606	       1.390998
	 R(7,9)           =         2.599823	       1.375767
	 R(7,18)          =         1.914282	       1.012995
	 R(8,9)           =         2.484308	       1.314639
	 R(9,10)          =         2.630982	       1.392256
	 R(10,11)         =         2.703446	       1.430602
	 R(10,19)         =         1.927104	       1.019779
	 R(11,12)         =         2.654117	       1.404498
	 R(11,13)         =         2.421536	       1.281422
	 R(12,20)         =         1.929030	       1.020798
	 R(12,21)         =         1.922290	       1.017232
	 R(13,22)         =         1.938367	       1.025739
	 B(1,2,3)         =         2.120441	     121.492310
	 B(1,2,15)        =         2.085075	     119.465981
	 B(1,6,5)         =         2.089312	     119.708751
	 B(1,6,8)         =         2.257248	     129.330807
	 B(2,1,6)         =         2.058433	     117.939546
	 B(2,1,14)        =         2.125411	     121.777053
	 B(2,3,4)         =         2.121108	     121.530556
	 B(2,3,16)        =         2.082065	     119.293535
	 B(3,2,15)        =         2.077652	     119.040689
	 B(3,4,5)         =         2.032703	     116.465308
	 B(3,4,17)        =         2.118441	     121.377755
	 B(4,3,16)        =         2.079979	     119.174003
	 B(4,5,6)         =         2.144210	     122.854170
	 B(4,5,7)         =         2.314328	     132.601244
	 B(5,4,17)        =         2.131915	     122.149720
	 B(5,6,8)         =         1.936606	     110.959346
	 B(5,7,9)         =         1.857210	     106.410306
	 B(5,7,18)        =         2.198834	     125.983933
	 B(6,1,14)        =         2.099339	     120.283281
	 B(6,5,7)         =         1.824062	     104.511051
	 B(6,8,9)         =         1.813297	     103.894256
	 B(7,9,8)         =         1.992859	     114.182390
	 B(7,9,10)        =         2.089016	     119.691802
	 B(8,9,10)        =         2.201255	     126.122625
	 B(9,7,18)        =         2.169352	     124.294734
	 B(9,10,11)       =         1.996232	     114.375677
	 B(9,10,19)       =         1.958456	     112.211274
	 B(10,11,12)      =         1.957585	     112.161339
	 B(10,11,13)      =         2.054852	     117.734344
	 B(11,10,19)      =         1.948184	     111.622729
	 B(11,12,20)      =         1.967015	     112.701645
	 B(11,12,21)      =         1.985491	     113.760253
	 B(11,13,22)      =         1.917254	     109.850589
	 B(12,11,13)      =         2.267036	     129.891590
	 B(20,12,21)      =         1.928404	     110.489438
	 D(1,2,3,4)       =         0.012124	       0.694649
	 D(1,2,3,16)      =        -3.138310	    -179.811939
	 D(1,6,5,4)       =        -0.007849	      -0.449707
	 D(1,6,5,7)       =        -3.116894	    -178.584896
	 D(1,6,8,9)       =         3.138221	     179.806834
	 D(2,1,6,5)       =        -0.001070	      -0.061291
	 D(2,1,6,8)       =        -3.135373	    -179.643632
	 D(2,3,4,5)       =        -0.019922	      -1.141450
	 D(2,3,4,17)      =         3.138376	     179.815703
	 D(3,2,1,6)       =        -0.001050	      -0.060175
	 D(3,2,1,14)      =         3.138349	     179.814180
	 D(3,4,5,6)       =         0.018019	       1.032411
	 D(3,4,5,7)       =         3.116800	     178.579485
	 D(4,3,2,15)      =        -3.135917	    -179.674798
	 D(4,5,6,8)       =         3.127706	     179.204345
	 D(4,5,7,9)       =        -3.136735	    -179.721700
	 D(4,5,7,18)      =         0.353784	      20.270315
	 D(5,4,3,16)      =         3.130502	     179.364547
	 D(5,6,1,14)      =        -3.140504	    -179.937601
	 D(5,6,8,9)       =         0.003409	       0.195297
	 D(5,7,9,8)       =         0.038365	       2.198161
	 D(5,7,9,10)      =        -3.092587	    -177.192177
	 D(6,1,2,15)      =        -3.136168	    -179.689188
	 D(6,5,4,17)      =        -3.140419	    -179.932760
	 D(6,5,7,9)       =        -0.032289	      -1.850029
	 D(6,5,7,18)      =        -2.824955	    -161.858015
	 D(6,8,9,7)       =        -0.025740	      -1.474822
	 D(6,8,9,10)      =         3.104409	     177.869515
	 D(7,5,4,17)      =        -0.041638	      -2.385686
	 D(7,5,6,8)       =         0.018660	       1.069156
	 D(7,9,10,11)     =         3.129366	     179.299444
	 D(7,9,10,19)     =        -0.911734	     -52.238539
	 D(8,6,1,14)      =         0.008379	       0.480058
	 D(8,9,7,18)      =         2.838494	     162.633704
	*D(8,9,10,11)     =        -0.000210	      -0.012026
	 D(8,9,10,19)     =         2.241875	     128.449991
	 D(9,10,11,12)    =         1.673021	      95.857047
	 D(9,10,11,13)    =        -1.551899	     -88.917279
	 D(10,9,7,18)     =        -0.292458	     -16.756634
	 D(10,11,12,20)   =        -0.856389	     -49.067455
	 D(10,11,12,21)   =        -3.069105	    -175.846740
	 D(10,11,13,22)   =         3.064198	     175.565601
	 D(12,11,10,19)   =        -0.574239	     -32.901493
	 D(12,11,13,22)   =        -0.178030	     -10.200341
	 D(13,11,10,19)   =         2.484026	     142.324181
	 D(13,11,12,20)   =         2.381368	     136.442352
	 D(13,11,12,21)   =         0.168652	       9.663067
	 D(14,1,2,15)     =         0.003232	       0.185166
	 D(15,2,3,16)     =        -0.003166	      -0.181386
	 D(16,3,4,17)     =         0.005615	       0.321699
	 R(8,13)          =         6.216481	       3.289620

	Current energy   :      -582.2988332787

	Energy change for the previous step:
		Projected    :        -0.0000790489
		Actual       :        -0.0000335959

	Performing BFGS update.
	Previous computed or guess Hessian on step 1.
	Steps to be used in Hessian update: 31 30
	Taking RFO optimization step.
	Going to follow RFO solution 1.
	Rejecting RFO root 1 because normalization gives large value.
	Using RFO vector 2.

	Determining step-restricting scale parameter for RS-RFO.
	Maximum step size allowed    0.14062

	 Iter      |step|        alpha        rfo_root  
	------------------------------------------------
	    0     0.43546       1.00000           2
	    1     0.28193       3.88691           2
	    2     0.19539       8.67830           2
	    3     0.15451      13.48707           2
	    4     0.14197      15.65638           2
	    5     0.14064      15.91369           2
	    6     0.14063      15.91662           2
	------------------------------------------------
	Norm of target step-size    0.14063
	Projected energy change by RFO approximation:         0.0003917478

	Back-transformation to cartesian coordinates...
	The INTCO_EXCEPTion handler:
	TORS::compute_val: unable to compute torsion value
	Dynamic level is 0.
	exc.g_really_quit() is 0.

  **** Optimization has failed! (in 32 steps) ****
			--------------------------
			 OPTKING Finished Execution 
			--------------------------
	Cleaning optimization helper files.

*** Psi4 exiting successfully. Buy a developer a beer!
